HEADER
"PSFversion" "1.00"
"simulator" "spectre"
"version" "19.1.0.237.isr3"
"date" "10:24:37 AM, Fri Oct 9, 2020"
"design" "// Point Netlist Generated on: Oct  9 10:16:20 2020"
"analysis type" "info"
"analysis name" "designParamVals"
"analysis description" "Circuit Information"
"xVecSorted" "unknown"
"tolerance.relative" 0.000100000
TYPE
"top-level" STRUCT(
"temp" FLOAT DOUBLE
"tnom" FLOAT DOUBLE
"time" FLOAT DOUBLE
"VDD" FLOAT DOUBLE
"RL" FLOAT DOUBLE
"CL" FLOAT DOUBLE
"V_I_CM" FLOAT DOUBLE
"V_I_D" FLOAT DOUBLE
"xsf__" FLOAT DOUBLE
) PROP(
"key" "parameters"
)
VALUE
"top-level" "top-level" (
2.700000000000000e+01
2.700000000000000e+01
0.000000000000000e+00
3.300000000000000e+00
5.000000000000000e+04
5.000000000000000e-11
0.000000000000000e+00
0.000000000000000e+00
3.000000000000000e+00
)
END
