HEADER
"PSFversion" "1.00"
"simulator" "spectre"
"version" "19.1.0.237.isr3"
"date" "10:42:30 AM, Fri Oct 9, 2020"
"design" "// Point Netlist Generated on: Oct  9 10:41:08 2020"
"analysis type" "noise"
"analysis name" "noise1"
"analysis description" "Noise Analysis `noise1': freq = (1 Hz -> 1 GHz)"
"xVecSorted" "ascending"
"tolerance.relative" 0.000100000
"operating point producer" "noise1"
"output" "pair of nodes"
"ground" "0"
"positive output signal" "OUT"
"negative output signal" "CM"
"input probe" "V0"
TYPE
"sweep" FLOAT DOUBLE PROP(
"key" "sweep"
)
"V/sqrt(Hz)" FLOAT DOUBLE PROP(
"units" "V/sqrt(Hz)"
"key" "noise"
)
"V^2/Hz" FLOAT DOUBLE PROP(
"units" "V^2/Hz"
"key" "noise"
)
"V/V" FLOAT DOUBLE PROP(
"units" "V/V"
"key" "noise"
)
"Noise factor" FLOAT DOUBLE PROP(
"units" "(V^2/Hz)/(V^2/Hz)"
"key" "noise"
)
"dB" FLOAT DOUBLE PROP(
"units" "dB"
"key" "noise"
)
"I1.MC2.nmosmod" STRUCT(
"rd" FLOAT DOUBLE PROP(
"units" "V^2/Hz"
)
"rs" FLOAT DOUBLE PROP(
"units" "V^2/Hz"
)
"id" FLOAT DOUBLE PROP(
"units" "V^2/Hz"
)
"fn" FLOAT DOUBLE PROP(
"units" "V^2/Hz"
)
"total" FLOAT DOUBLE PROP(
"units" "V^2/Hz"
)
) PROP(
"key" "inst"
"master" "b3v3"
)
"I1.M16.nmosmod" STRUCT(
"rd" FLOAT DOUBLE PROP(
"units" "V^2/Hz"
)
"rs" FLOAT DOUBLE PROP(
"units" "V^2/Hz"
)
"id" FLOAT DOUBLE PROP(
"units" "V^2/Hz"
)
"fn" FLOAT DOUBLE PROP(
"units" "V^2/Hz"
)
"total" FLOAT DOUBLE PROP(
"units" "V^2/Hz"
)
) PROP(
"key" "inst"
"master" "b3v3"
)
"I1.M14.nmosmod" STRUCT(
"rd" FLOAT DOUBLE PROP(
"units" "V^2/Hz"
)
"rs" FLOAT DOUBLE PROP(
"units" "V^2/Hz"
)
"id" FLOAT DOUBLE PROP(
"units" "V^2/Hz"
)
"fn" FLOAT DOUBLE PROP(
"units" "V^2/Hz"
)
"total" FLOAT DOUBLE PROP(
"units" "V^2/Hz"
)
) PROP(
"key" "inst"
"master" "b3v3"
)
"I1.M19.nmosmod" STRUCT(
"rd" FLOAT DOUBLE PROP(
"units" "V^2/Hz"
)
"rs" FLOAT DOUBLE PROP(
"units" "V^2/Hz"
)
"id" FLOAT DOUBLE PROP(
"units" "V^2/Hz"
)
"fn" FLOAT DOUBLE PROP(
"units" "V^2/Hz"
)
"total" FLOAT DOUBLE PROP(
"units" "V^2/Hz"
)
) PROP(
"key" "inst"
"master" "b3v3"
)
"I1.M2.nmosmod" STRUCT(
"rd" FLOAT DOUBLE PROP(
"units" "V^2/Hz"
)
"rs" FLOAT DOUBLE PROP(
"units" "V^2/Hz"
)
"id" FLOAT DOUBLE PROP(
"units" "V^2/Hz"
)
"fn" FLOAT DOUBLE PROP(
"units" "V^2/Hz"
)
"total" FLOAT DOUBLE PROP(
"units" "V^2/Hz"
)
) PROP(
"key" "inst"
"master" "b3v3"
)
"I1.M6.nmosmod" STRUCT(
"rd" FLOAT DOUBLE PROP(
"units" "V^2/Hz"
)
"rs" FLOAT DOUBLE PROP(
"units" "V^2/Hz"
)
"id" FLOAT DOUBLE PROP(
"units" "V^2/Hz"
)
"fn" FLOAT DOUBLE PROP(
"units" "V^2/Hz"
)
"total" FLOAT DOUBLE PROP(
"units" "V^2/Hz"
)
) PROP(
"key" "inst"
"master" "b3v3"
)
"I1.M9.nmosmod" STRUCT(
"rd" FLOAT DOUBLE PROP(
"units" "V^2/Hz"
)
"rs" FLOAT DOUBLE PROP(
"units" "V^2/Hz"
)
"id" FLOAT DOUBLE PROP(
"units" "V^2/Hz"
)
"fn" FLOAT DOUBLE PROP(
"units" "V^2/Hz"
)
"total" FLOAT DOUBLE PROP(
"units" "V^2/Hz"
)
) PROP(
"key" "inst"
"master" "b3v3"
)
"I1.M11.nmosmod" STRUCT(
"rd" FLOAT DOUBLE PROP(
"units" "V^2/Hz"
)
"rs" FLOAT DOUBLE PROP(
"units" "V^2/Hz"
)
"id" FLOAT DOUBLE PROP(
"units" "V^2/Hz"
)
"fn" FLOAT DOUBLE PROP(
"units" "V^2/Hz"
)
"total" FLOAT DOUBLE PROP(
"units" "V^2/Hz"
)
) PROP(
"key" "inst"
"master" "b3v3"
)
"I1.M15.pmosmod" STRUCT(
"rd" FLOAT DOUBLE PROP(
"units" "V^2/Hz"
)
"rs" FLOAT DOUBLE PROP(
"units" "V^2/Hz"
)
"id" FLOAT DOUBLE PROP(
"units" "V^2/Hz"
)
"fn" FLOAT DOUBLE PROP(
"units" "V^2/Hz"
)
"total" FLOAT DOUBLE PROP(
"units" "V^2/Hz"
)
) PROP(
"key" "inst"
"master" "b3v3"
)
"I1.M13.pmosmod" STRUCT(
"rd" FLOAT DOUBLE PROP(
"units" "V^2/Hz"
)
"rs" FLOAT DOUBLE PROP(
"units" "V^2/Hz"
)
"id" FLOAT DOUBLE PROP(
"units" "V^2/Hz"
)
"fn" FLOAT DOUBLE PROP(
"units" "V^2/Hz"
)
"total" FLOAT DOUBLE PROP(
"units" "V^2/Hz"
)
) PROP(
"key" "inst"
"master" "b3v3"
)
"I1.M17.pmosmod" STRUCT(
"rd" FLOAT DOUBLE PROP(
"units" "V^2/Hz"
)
"rs" FLOAT DOUBLE PROP(
"units" "V^2/Hz"
)
"id" FLOAT DOUBLE PROP(
"units" "V^2/Hz"
)
"fn" FLOAT DOUBLE PROP(
"units" "V^2/Hz"
)
"total" FLOAT DOUBLE PROP(
"units" "V^2/Hz"
)
) PROP(
"key" "inst"
"master" "b3v3"
)
"I1.M1.pmosmod" STRUCT(
"rd" FLOAT DOUBLE PROP(
"units" "V^2/Hz"
)
"rs" FLOAT DOUBLE PROP(
"units" "V^2/Hz"
)
"id" FLOAT DOUBLE PROP(
"units" "V^2/Hz"
)
"fn" FLOAT DOUBLE PROP(
"units" "V^2/Hz"
)
"total" FLOAT DOUBLE PROP(
"units" "V^2/Hz"
)
) PROP(
"key" "inst"
"master" "b3v3"
)
"I1.M3.pmosmod" STRUCT(
"rd" FLOAT DOUBLE PROP(
"units" "V^2/Hz"
)
"rs" FLOAT DOUBLE PROP(
"units" "V^2/Hz"
)
"id" FLOAT DOUBLE PROP(
"units" "V^2/Hz"
)
"fn" FLOAT DOUBLE PROP(
"units" "V^2/Hz"
)
"total" FLOAT DOUBLE PROP(
"units" "V^2/Hz"
)
) PROP(
"key" "inst"
"master" "b3v3"
)
"I1.MC1.pmosmod" STRUCT(
"rd" FLOAT DOUBLE PROP(
"units" "V^2/Hz"
)
"rs" FLOAT DOUBLE PROP(
"units" "V^2/Hz"
)
"id" FLOAT DOUBLE PROP(
"units" "V^2/Hz"
)
"fn" FLOAT DOUBLE PROP(
"units" "V^2/Hz"
)
"total" FLOAT DOUBLE PROP(
"units" "V^2/Hz"
)
) PROP(
"key" "inst"
"master" "b3v3"
)
"I1.M10.pmosmod" STRUCT(
"rd" FLOAT DOUBLE PROP(
"units" "V^2/Hz"
)
"rs" FLOAT DOUBLE PROP(
"units" "V^2/Hz"
)
"id" FLOAT DOUBLE PROP(
"units" "V^2/Hz"
)
"fn" FLOAT DOUBLE PROP(
"units" "V^2/Hz"
)
"total" FLOAT DOUBLE PROP(
"units" "V^2/Hz"
)
) PROP(
"key" "inst"
"master" "b3v3"
)
"I0.M16.pmosmod" STRUCT(
"rd" FLOAT DOUBLE PROP(
"units" "V^2/Hz"
)
"rs" FLOAT DOUBLE PROP(
"units" "V^2/Hz"
)
"id" FLOAT DOUBLE PROP(
"units" "V^2/Hz"
)
"fn" FLOAT DOUBLE PROP(
"units" "V^2/Hz"
)
"total" FLOAT DOUBLE PROP(
"units" "V^2/Hz"
)
) PROP(
"key" "inst"
"master" "b3v3"
)
"I0.M15.pmosmod" STRUCT(
"rd" FLOAT DOUBLE PROP(
"units" "V^2/Hz"
)
"rs" FLOAT DOUBLE PROP(
"units" "V^2/Hz"
)
"id" FLOAT DOUBLE PROP(
"units" "V^2/Hz"
)
"fn" FLOAT DOUBLE PROP(
"units" "V^2/Hz"
)
"total" FLOAT DOUBLE PROP(
"units" "V^2/Hz"
)
) PROP(
"key" "inst"
"master" "b3v3"
)
"I0.M11.pmosmod" STRUCT(
"rd" FLOAT DOUBLE PROP(
"units" "V^2/Hz"
)
"rs" FLOAT DOUBLE PROP(
"units" "V^2/Hz"
)
"id" FLOAT DOUBLE PROP(
"units" "V^2/Hz"
)
"fn" FLOAT DOUBLE PROP(
"units" "V^2/Hz"
)
"total" FLOAT DOUBLE PROP(
"units" "V^2/Hz"
)
) PROP(
"key" "inst"
"master" "b3v3"
)
"I0.M9.pmosmod" STRUCT(
"rd" FLOAT DOUBLE PROP(
"units" "V^2/Hz"
)
"rs" FLOAT DOUBLE PROP(
"units" "V^2/Hz"
)
"id" FLOAT DOUBLE PROP(
"units" "V^2/Hz"
)
"fn" FLOAT DOUBLE PROP(
"units" "V^2/Hz"
)
"total" FLOAT DOUBLE PROP(
"units" "V^2/Hz"
)
) PROP(
"key" "inst"
"master" "b3v3"
)
"I0.M3.pmosmod" STRUCT(
"rd" FLOAT DOUBLE PROP(
"units" "V^2/Hz"
)
"rs" FLOAT DOUBLE PROP(
"units" "V^2/Hz"
)
"id" FLOAT DOUBLE PROP(
"units" "V^2/Hz"
)
"fn" FLOAT DOUBLE PROP(
"units" "V^2/Hz"
)
"total" FLOAT DOUBLE PROP(
"units" "V^2/Hz"
)
) PROP(
"key" "inst"
"master" "b3v3"
)
"I0.M0.pmosmod" STRUCT(
"rd" FLOAT DOUBLE PROP(
"units" "V^2/Hz"
)
"rs" FLOAT DOUBLE PROP(
"units" "V^2/Hz"
)
"id" FLOAT DOUBLE PROP(
"units" "V^2/Hz"
)
"fn" FLOAT DOUBLE PROP(
"units" "V^2/Hz"
)
"total" FLOAT DOUBLE PROP(
"units" "V^2/Hz"
)
) PROP(
"key" "inst"
"master" "b3v3"
)
"I0.M5.nmosmod" STRUCT(
"rd" FLOAT DOUBLE PROP(
"units" "V^2/Hz"
)
"rs" FLOAT DOUBLE PROP(
"units" "V^2/Hz"
)
"id" FLOAT DOUBLE PROP(
"units" "V^2/Hz"
)
"fn" FLOAT DOUBLE PROP(
"units" "V^2/Hz"
)
"total" FLOAT DOUBLE PROP(
"units" "V^2/Hz"
)
) PROP(
"key" "inst"
"master" "b3v3"
)
"I0.M8.nmosmod" STRUCT(
"rd" FLOAT DOUBLE PROP(
"units" "V^2/Hz"
)
"rs" FLOAT DOUBLE PROP(
"units" "V^2/Hz"
)
"id" FLOAT DOUBLE PROP(
"units" "V^2/Hz"
)
"fn" FLOAT DOUBLE PROP(
"units" "V^2/Hz"
)
"total" FLOAT DOUBLE PROP(
"units" "V^2/Hz"
)
) PROP(
"key" "inst"
"master" "b3v3"
)
"I0.M7.nmosmod" STRUCT(
"rd" FLOAT DOUBLE PROP(
"units" "V^2/Hz"
)
"rs" FLOAT DOUBLE PROP(
"units" "V^2/Hz"
)
"id" FLOAT DOUBLE PROP(
"units" "V^2/Hz"
)
"fn" FLOAT DOUBLE PROP(
"units" "V^2/Hz"
)
"total" FLOAT DOUBLE PROP(
"units" "V^2/Hz"
)
) PROP(
"key" "inst"
"master" "b3v3"
)
"I0.M1.nmosmod" STRUCT(
"rd" FLOAT DOUBLE PROP(
"units" "V^2/Hz"
)
"rs" FLOAT DOUBLE PROP(
"units" "V^2/Hz"
)
"id" FLOAT DOUBLE PROP(
"units" "V^2/Hz"
)
"fn" FLOAT DOUBLE PROP(
"units" "V^2/Hz"
)
"total" FLOAT DOUBLE PROP(
"units" "V^2/Hz"
)
) PROP(
"key" "inst"
"master" "b3v3"
)
"I0.M4.nmosmod" STRUCT(
"rd" FLOAT DOUBLE PROP(
"units" "V^2/Hz"
)
"rs" FLOAT DOUBLE PROP(
"units" "V^2/Hz"
)
"id" FLOAT DOUBLE PROP(
"units" "V^2/Hz"
)
"fn" FLOAT DOUBLE PROP(
"units" "V^2/Hz"
)
"total" FLOAT DOUBLE PROP(
"units" "V^2/Hz"
)
) PROP(
"key" "inst"
"master" "b3v3"
)
"I1.R1.xd2.dnd2" STRUCT(
"rs" FLOAT DOUBLE PROP(
"units" "V^2/Hz"
)
"id" FLOAT DOUBLE PROP(
"units" "V^2/Hz"
)
"total" FLOAT DOUBLE PROP(
"units" "V^2/Hz"
)
) PROP(
"key" "inst"
"master" "diode"
)
"I1.R1.xd2.dnd1" STRUCT(
"rs" FLOAT DOUBLE PROP(
"units" "V^2/Hz"
)
"id" FLOAT DOUBLE PROP(
"units" "V^2/Hz"
)
"total" FLOAT DOUBLE PROP(
"units" "V^2/Hz"
)
) PROP(
"key" "inst"
"master" "diode"
)
"I1.R1.xd1.dnd2" STRUCT(
"rs" FLOAT DOUBLE PROP(
"units" "V^2/Hz"
)
"id" FLOAT DOUBLE PROP(
"units" "V^2/Hz"
)
"total" FLOAT DOUBLE PROP(
"units" "V^2/Hz"
)
) PROP(
"key" "inst"
"master" "diode"
)
"I1.R1.xd1.dnd1" STRUCT(
"rs" FLOAT DOUBLE PROP(
"units" "V^2/Hz"
)
"id" FLOAT DOUBLE PROP(
"units" "V^2/Hz"
)
"total" FLOAT DOUBLE PROP(
"units" "V^2/Hz"
)
) PROP(
"key" "inst"
"master" "diode"
)
"I0.R1.xd2.dnd2" STRUCT(
"rs" FLOAT DOUBLE PROP(
"units" "V^2/Hz"
)
"id" FLOAT DOUBLE PROP(
"units" "V^2/Hz"
)
"total" FLOAT DOUBLE PROP(
"units" "V^2/Hz"
)
) PROP(
"key" "inst"
"master" "diode"
)
"I0.R1.xd2.dnd1" STRUCT(
"rs" FLOAT DOUBLE PROP(
"units" "V^2/Hz"
)
"id" FLOAT DOUBLE PROP(
"units" "V^2/Hz"
)
"total" FLOAT DOUBLE PROP(
"units" "V^2/Hz"
)
) PROP(
"key" "inst"
"master" "diode"
)
"I0.R1.xd1.dnd2" STRUCT(
"rs" FLOAT DOUBLE PROP(
"units" "V^2/Hz"
)
"id" FLOAT DOUBLE PROP(
"units" "V^2/Hz"
)
"total" FLOAT DOUBLE PROP(
"units" "V^2/Hz"
)
) PROP(
"key" "inst"
"master" "diode"
)
"I0.R1.xd1.dnd1" STRUCT(
"rs" FLOAT DOUBLE PROP(
"units" "V^2/Hz"
)
"id" FLOAT DOUBLE PROP(
"units" "V^2/Hz"
)
"total" FLOAT DOUBLE PROP(
"units" "V^2/Hz"
)
) PROP(
"key" "inst"
"master" "diode"
)
"resistor" STRUCT(
"rn" FLOAT DOUBLE PROP(
"units" "V^2/Hz"
)
"total" FLOAT DOUBLE PROP(
"units" "V^2/Hz"
)
) PROP(
"key" "inst"
"master" "resistor"
)
"I1.R1.rdnmod" STRUCT(
"rn" FLOAT DOUBLE PROP(
"units" "V^2/Hz"
)
"fn" FLOAT DOUBLE PROP(
"units" "V^2/Hz"
)
"total" FLOAT DOUBLE PROP(
"units" "V^2/Hz"
)
) PROP(
"key" "inst"
"master" "resistor"
)
"I0.R1.rdnmod" STRUCT(
"rn" FLOAT DOUBLE PROP(
"units" "V^2/Hz"
)
"fn" FLOAT DOUBLE PROP(
"units" "V^2/Hz"
)
"total" FLOAT DOUBLE PROP(
"units" "V^2/Hz"
)
) PROP(
"key" "inst"
"master" "resistor"
)
"rsildn" STRUCT(
"rn" FLOAT DOUBLE PROP(
"units" "V^2/Hz"
)
"total" FLOAT DOUBLE PROP(
"units" "V^2/Hz"
)
) PROP(
"key" "inst"
"master" "resistor"
)
"rsbdn" STRUCT(
"rn" FLOAT DOUBLE PROP(
"units" "V^2/Hz"
)
"total" FLOAT DOUBLE PROP(
"units" "V^2/Hz"
)
) PROP(
"key" "inst"
"master" "resistor"
)
"rctdn" STRUCT(
"rn" FLOAT DOUBLE PROP(
"units" "V^2/Hz"
)
"total" FLOAT DOUBLE PROP(
"units" "V^2/Hz"
)
) PROP(
"key" "inst"
"master" "resistor"
)
SWEEP
"freq" "sweep" PROP(
"sweep_direction" 0
"units" "Hz"
"plot" 0
"grid" 3
)
TRACE
"I1.MC2.m1" "I1.MC2.nmosmod"
"I1.M22.m1" "I1.M16.nmosmod"
"I1.M16.m1" "I1.M16.nmosmod"
"I1.M14.m1" "I1.M14.nmosmod"
"I1.M19.m1" "I1.M19.nmosmod"
"I1.M2.m1" "I1.M2.nmosmod"
"I1.M4.m1" "I1.M6.nmosmod"
"I1.M5.m1" "I1.M6.nmosmod"
"I1.M6.m1" "I1.M6.nmosmod"
"I1.M12.m1" "I1.M9.nmosmod"
"I1.M9.m1" "I1.M9.nmosmod"
"I1.M8.m1" "I1.M11.nmosmod"
"I1.M11.m1" "I1.M11.nmosmod"
"I1.M15.m1" "I1.M15.pmosmod"
"I1.M18.m1" "I1.M13.pmosmod"
"I1.M13.m1" "I1.M13.pmosmod"
"I1.Mdumm.m1" "I1.M17.pmosmod"
"I1.M17.m1" "I1.M17.pmosmod"
"I1.M1.m1" "I1.M1.pmosmod"
"I1.M3.m1" "I1.M3.pmosmod"
"I1.MC1.m1" "I1.MC1.pmosmod"
"I1.M7.m1" "I1.M10.pmosmod"
"I1.M10.m1" "I1.M10.pmosmod"
"I0.M16.m1" "I0.M16.pmosmod"
"I0.M15.m1" "I0.M15.pmosmod"
"I0.M11.m1" "I0.M11.pmosmod"
"I0.M6.m1" "I0.M9.pmosmod"
"I0.M9.m1" "I0.M9.pmosmod"
"I0.M3.m1" "I0.M3.pmosmod"
"I0.M13.m1" "I0.M0.pmosmod"
"I0.M14.m1" "I0.M0.pmosmod"
"I0.M0.m1" "I0.M0.pmosmod"
"I0.M5.m1" "I0.M5.nmosmod"
"I0.M8.m1" "I0.M8.nmosmod"
"I0.M12.m1" "I0.M7.nmosmod"
"I0.M10.m1" "I0.M7.nmosmod"
"I0.M7.m1" "I0.M7.nmosmod"
"I0.M2.m1" "I0.M1.nmosmod"
"I0.M1.m1" "I0.M1.nmosmod"
"I0.M4.m1" "I0.M4.nmosmod"
"I1.R1.xd2.d2" "I1.R1.xd2.dnd2"
"I1.R1.xd2.d1" "I1.R1.xd2.dnd1"
"I1.R1.xd3.d2" "I1.R1.xd1.dnd2"
"I1.R1.xd1.d2" "I1.R1.xd1.dnd2"
"I1.R1.xd3.d1" "I1.R1.xd1.dnd1"
"I1.R1.xd1.d1" "I1.R1.xd1.dnd1"
"I0.R2.xd2.d2" "I0.R1.xd2.dnd2"
"I0.R1.xd2.d2" "I0.R1.xd2.dnd2"
"I0.R2.xd2.d1" "I0.R1.xd2.dnd1"
"I0.R1.xd2.d1" "I0.R1.xd2.dnd1"
"I0.R2.xd3.d2" "I0.R1.xd1.dnd2"
"I0.R2.xd1.d2" "I0.R1.xd1.dnd2"
"I0.R1.xd3.d2" "I0.R1.xd1.dnd2"
"I0.R1.xd1.d2" "I0.R1.xd1.dnd2"
"I0.R2.xd3.d1" "I0.R1.xd1.dnd1"
"I0.R2.xd1.d1" "I0.R1.xd1.dnd1"
"I0.R1.xd3.d1" "I0.R1.xd1.dnd1"
"I0.R1.xd1.d1" "I0.R1.xd1.dnd1"
"R0" "resistor"
"I0.C0.r1" "resistor"
"I1.R1.r2" "I1.R1.rdnmod"
"I1.R1.r1" "I1.R1.rdnmod"
"I0.R2.r2" "I0.R1.rdnmod"
"I0.R2.r1" "I0.R1.rdnmod"
"I0.R1.r2" "I0.R1.rdnmod"
"I0.R1.r1" "I0.R1.rdnmod"
"I1.R1.r22" "rsildn"
"I1.R1.r12" "rsildn"
"I0.R2.r22" "rsildn"
"I0.R2.r12" "rsildn"
"I0.R1.r22" "rsildn"
"I0.R1.r12" "rsildn"
"I1.R1.r23" "rsbdn"
"I1.R1.r13" "rsbdn"
"I0.R2.r23" "rsbdn"
"I0.R2.r13" "rsbdn"
"I0.R1.r23" "rsbdn"
"I0.R1.r13" "rsbdn"
"I1.R1.r21" "rctdn"
"I1.R1.r11" "rctdn"
"I0.R2.r21" "rctdn"
"I0.R2.r11" "rctdn"
"I0.R1.r21" "rctdn"
"I0.R1.r11" "rctdn"
"out" "V/sqrt(Hz)"
"in" "V/sqrt(Hz)"
"gain" "V/V"
VALUE
"freq" 1.000000000000000e+00
"I1.MC2.m1" (
0.000000000000000e+00
0.000000000000000e+00
0.000000000000000e+00
0.000000000000000e+00
0.000000000000000e+00
)
"I1.M22.m1" (
1.773442754921192e-62
7.001275556929361e-62
1.410901228529772e-51
5.409730235299895e-52
1.951874252147508e-51
)
"I1.M16.m1" (
1.996999642250715e-74
5.525162505006104e-74
8.078431600251176e-64
3.064316595711670e-64
1.114274819671506e-63
)
"I1.M14.m1" (
8.824368056630679e-56
3.748504494309169e-49
4.419768557168160e-44
3.349680660169740e-40
3.350122640773962e-40
)
"I1.M19.m1" (
4.093245481791480e-67
1.331549653816886e-60
1.659503601312156e-55
9.908424023395651e-52
9.910083540312464e-52
)
"I1.M2.m1" (
2.472112369921215e-51
2.472112251174352e-51
4.495823444676352e-48
8.221000794916892e-58
4.500767670119547e-48
)
"I1.M4.m1" (
2.669926808835505e-58
1.193226401472947e-51
1.549040861195856e-46
1.188103503462159e-42
1.188258408741505e-42
)
"I1.M5.m1" (
2.478428180971925e-55
7.846647437718419e-49
9.757659687860896e-44
6.403492028101436e-40
6.404467801916871e-40
)
"I1.M6.m1" (
2.314654706265845e-46
2.326438351139055e-46
5.219297217286099e-38
9.213494958941149e-43
5.219389398646619e-38
)
"I1.M12.m1" (
1.266432849270375e-31
1.266648395343272e-31
2.536268251213534e-28
2.926043218382474e-28
5.464844550840622e-28
)
"I1.M9.m1" (
2.320776484343397e-31
2.321173009889748e-31
4.647797219561942e-28
5.403712160425949e-28
1.005615132948212e-27
)
"I1.M8.m1" (
8.288720934185305e-38
2.610845386506693e-31
2.065661858076847e-26
1.077699723673637e-21
1.077720380553302e-21
)
"I1.M11.m1" (
7.702094916212474e-44
2.791529043650005e-37
2.255579454806164e-32
1.289387042612144e-27
1.289409598685846e-27
)
"I1.M15.m1" (
9.460423043186368e-45
1.118027537355255e-44
3.856413335362012e-34
3.396465859838955e-37
3.859809801428258e-34
)
"I1.M18.m1" (
1.951606463821580e-61
3.054697273977588e-55
6.854307684991050e-50
1.901820729621285e-46
1.902506163444484e-46
)
"I1.M13.m1" (
1.194996992250271e-55
2.145394446397379e-49
5.343247883665849e-44
1.256579629341611e-40
1.257113956275373e-40
)
"I1.Mdumm.m1" (
1.310449126033992e-45
1.250678992642767e-45
1.042643614003665e-54
0.000000000000000e+00
2.561128119719403e-45
)
"I1.M17.m1" (
3.655179217182527e-49
2.359049930139740e-45
2.220059688915080e-50
2.714465909726619e-47
2.386582307755613e-45
)
"I1.M1.m1" (
2.777421613690685e-69
3.048607514061718e-68
1.384786680495876e-57
9.068434031798379e-59
1.475471020847123e-57
)
"I1.M3.m1" (
7.036959142150746e-52
7.532140022365435e-51
9.716986797331972e-45
1.794731306371694e-42
1.804448301404862e-42
)
"I1.MC1.m1" (
0.000000000000000e+00
0.000000000000000e+00
0.000000000000000e+00
0.000000000000000e+00
0.000000000000000e+00
)
"I1.M7.m1" (
1.676188832597900e-38
3.587803470477566e-32
7.815179862347624e-27
1.196876915829660e-23
1.197658437403700e-23
)
"I1.M10.m1" (
2.461289343733821e-36
4.112266579129266e-30
9.019016238353997e-25
1.228408872690315e-21
1.229310778426419e-21
)
"I0.M16.m1" (
2.513707667307603e-36
3.176800191858228e-33
5.618921690265834e-29
2.971013634239869e-23
2.971019253479491e-23
)
"I0.M15.m1" (
1.120031423775335e-37
1.507670910222668e-33
2.424575534021064e-29
1.313440075738631e-23
1.313442500464943e-23
)
"I0.M11.m1" (
2.385540546739305e-33
9.532028977014622e-28
5.912899396487877e-23
2.037092265214456e-18
2.037151395161626e-18
)
"I0.M6.m1" (
7.604083261132503e-28
1.425330464061419e-22
9.099885740800487e-18
2.349265416427929e-13
2.349356416710675e-13
)
"I0.M9.m1" (
7.800750887918131e-28
1.440101608690216e-22
9.196069465001772e-18
2.364713591525447e-13
2.364805553660206e-13
)
"I0.M3.m1" (
6.305881730174150e-37
1.354314727988182e-30
2.852723345677371e-25
4.976389741209762e-22
4.979242478098593e-22
)
"I0.M13.m1" (
6.250588826709344e-44
8.224803729613733e-44
2.576208790063922e-33
6.493900406599534e-36
2.582702690615276e-33
)
"I0.M14.m1" (
3.881315415893887e-38
4.413339139894091e-38
8.219983310919598e-28
8.107990894239284e-31
8.228091302643302e-28
)
"I0.M0.m1" (
3.486333032302501e-63
5.505691810044626e-63
2.235695974103847e-52
1.084468558400920e-54
2.246540659777777e-52
)
"I0.M5.m1" (
4.751000700510918e-36
8.492157626658137e-30
3.244539218207579e-25
2.342569189806012e-20
2.342601636047410e-20
)
"I0.M8.m1" (
8.935992881387065e-33
7.227963282413719e-27
2.649094076689345e-22
1.706995687087533e-17
1.707022178751097e-17
)
"I0.M12.m1" (
3.660850066515696e-33
3.509545686921055e-27
1.275169794531738e-22
8.493203942153882e-18
8.493331462642885e-18
)
"I0.M10.m1" (
1.062162164522828e-28
4.421710046748964e-22
3.289578219428791e-17
9.323985238420906e-13
9.324314200664560e-13
)
"I0.M7.m1" (
1.067812061240699e-28
4.421681934726255e-22
3.289596026169969e-17
9.299697884435503e-13
9.300026848459803e-13
)
"I0.M2.m1" (
6.694417875306197e-45
2.366087582209826e-44
3.784082279868618e-34
1.664430533998798e-34
5.448512814170969e-34
)
"I0.M1.m1" (
2.891569657591682e-45
2.891569464729486e-45
5.733106787288241e-42
1.428411408801530e-51
5.738889927838974e-42
)
"I0.M4.m1" (
2.682073795842318e-36
2.688437009018210e-36
6.730335466182298e-33
1.491419059620155e-30
1.498154765597142e-30
)
"I1.R1.xd2.d2" (
3.794566231522195e-44
9.202583414084017e-32
9.202583414087812e-32
)
"I1.R1.xd2.d1" (
3.791287523091501e-44
1.105977158324847e-33
1.105977158362760e-33
)
"I1.R1.xd3.d2" (
2.411500125878394e-44
8.333971415074035e-47
2.419834097293468e-44
)
"I1.R1.xd1.d2" (
2.092802999571630e-38
5.305102378514634e-39
2.623313237423094e-38
)
"I1.R1.xd3.d1" (
2.411499925719078e-44
1.396437139799395e-47
2.412896362858877e-44
)
"I1.R1.xd1.d1" (
2.092802999571630e-38
4.475122418815926e-40
2.137554223759790e-38
)
"I0.R2.xd2.d2" (
9.194342161357634e-42
9.551490636487037e-33
9.551490645681379e-33
)
"I0.R1.xd2.d2" (
9.194327887115285e-42
9.551490244250385e-33
9.551490253444714e-33
)
"I0.R2.xd2.d1" (
9.194342161357634e-42
1.146008578126066e-34
1.146008670069488e-34
)
"I0.R1.xd2.d1" (
9.194327887115285e-42
1.146008531064874e-34
1.146008623008153e-34
)
"I0.R2.xd3.d2" (
2.204074945793295e-41
3.983232646605674e-33
3.983232668646423e-33
)
"I0.R2.xd1.d2" (
2.204087534970633e-41
3.983232883893748e-33
3.983232905934623e-33
)
"I0.R1.xd3.d2" (
2.204084752286624e-41
3.983232565319443e-33
3.983232587360291e-33
)
"I0.R1.xd1.d2" (
2.204086102404079e-41
3.983232638033124e-33
3.983232660073985e-33
)
"I0.R2.xd3.d1" (
2.204074945793295e-41
4.779168985670845e-35
4.779171189745791e-35
)
"I0.R2.xd1.d1" (
2.204087534970633e-41
4.779169270372964e-35
4.779171474460500e-35
)
"I0.R1.xd3.d1" (
2.204084752286624e-41
4.779168888142329e-35
4.779171092227081e-35
)
"I0.R1.xd1.d1" (
2.204086102404079e-41
4.779168975385361e-35
4.779171179471464e-35
)
"R0" (
2.180097298118242e-31
2.180097298118242e-31
)
"I0.C0.r1" (
3.822410713877933e-42
3.822410713877933e-42
)
"I1.R1.r2" (
1.707909700305403e-25
4.697446076136082e-26
2.177654307919011e-25
)
"I1.R1.r1" (
1.707910749424540e-25
4.697452674553464e-26
2.177656016879886e-25
)
"I0.R2.r2" (
1.240491385611141e-31
1.728122537032291e-43
1.240491385612870e-31
)
"I0.R2.r1" (
1.240498766688113e-31
2.718650053506374e-43
1.240498766690831e-31
)
"I0.R1.r2" (
1.240477911912730e-31
1.035873112334747e-44
1.240477911912834e-31
)
"I0.R1.r1" (
1.240485093655266e-31
4.232167867199092e-44
1.240485093655689e-31
)
"I1.R1.r22" (
2.950910030221417e-30
2.950910030221417e-30
)
"I1.R1.r12" (
2.950915458817507e-30
2.950915458817507e-30
)
"I0.R2.r22" (
2.075071141226313e-34
2.075071141226313e-34
)
"I0.R2.r12" (
2.075094346684611e-34
2.075094346684611e-34
)
"I0.R1.r22" (
2.075048936026458e-34
2.075048936026458e-34
)
"I0.R1.r12" (
2.075071141219135e-34
2.075071141219135e-34
)
"I1.R1.r23" (
8.679147147710493e-29
8.679147147710493e-29
)
"I1.R1.r13" (
8.679163114131934e-29
8.679163114131934e-29
)
"I0.R2.r23" (
6.103150415398517e-33
6.103150415398517e-33
)
"I0.R2.r13" (
6.103218666676825e-33
6.103218666676825e-33
)
"I0.R1.r23" (
6.103085105959496e-33
6.103085105959496e-33
)
"I0.R1.r13" (
6.103150415325923e-33
6.103150415325923e-33
)
"I1.R1.r21" (
1.564416273374767e-29
1.564416273374767e-29
)
"I1.R1.r11" (
1.564419151285873e-29
1.564419151285873e-29
)
"I0.R2.r21" (
5.500464311845115e-34
5.500464311845115e-34
)
"I0.R2.r11" (
5.500525823286646e-34
5.500525823286646e-34
)
"I0.R1.r21" (
5.500405451744358e-34
5.500405451744358e-34
)
"I0.R1.r11" (
5.500464311824675e-34
5.500464311824675e-34
)
"out" 1.527703482008339e-06
"in" 1.527709073544816e-06
"gain" 9.999963399206210e-01
"freq" 1.513561248436208e+00
"I1.MC2.m1" (
0.000000000000000e+00
0.000000000000000e+00
0.000000000000000e+00
0.000000000000000e+00
0.000000000000000e+00
)
"I1.M22.m1" (
4.058746802783065e-62
1.602014527989184e-61
3.228389237597154e-51
7.990701142834711e-52
4.027459352081415e-51
)
"I1.M16.m1" (
7.974804974277176e-74
1.613687378439975e-73
1.850688746046002e-63
4.531687618322724e-64
2.303857508119391e-63
)
"I1.M14.m1" (
2.021574181456138e-55
8.587448091007169e-49
1.012524677950103e-43
4.953697638468395e-40
4.954710171733795e-40
)
"I1.M19.m1" (
9.377220329746292e-67
3.050448504192005e-60
3.801758547879180e-55
1.465314730428020e-51
1.465694909333257e-51
)
"I1.M2.m1" (
5.642566653125794e-51
5.642566382085266e-51
1.026166276093278e-47
1.211304080919780e-57
1.027294789517930e-47
)
"I1.M4.m1" (
3.442622638451325e-58
1.538713615881560e-51
1.997550103980807e-46
9.890291320923779e-43
9.892288886414899e-43
)
"I1.M5.m1" (
5.671077891990722e-55
1.795450427493544e-48
2.232723516248678e-43
9.458584595068356e-40
9.460817336539116e-40
)
"I1.M6.m1" (
2.314687158818152e-46
2.325313315495329e-46
5.219370394513614e-38
5.947719677338451e-43
5.219429918110392e-38
)
"I1.M12.m1" (
1.266450605308205e-31
1.266666154403168e-31
2.536303810994726e-28
1.888890687437969e-28
4.427727615192407e-28
)
"I1.M9.m1" (
2.320809022821439e-31
2.321205553927282e-31
4.647862384065631e-28
3.488335891044945e-28
8.140840289687326e-28
)
"I1.M8.m1" (
8.288837146445103e-38
2.610881991899892e-31
2.065690819716982e-26
6.957029749645131e-22
6.957236321337985e-22
)
"I1.M11.m1" (
7.702202962401550e-44
2.791568203601890e-37
2.255611096383787e-32
8.323565354610452e-28
8.323790918511659e-28
)
"I1.M15.m1" (
9.468763475696236e-45
1.118043212674948e-44
3.856467404255555e-34
2.152947018868721e-37
3.858620351480917e-34
)
"I1.M18.m1" (
4.470934805409261e-61
6.998005291951222e-55
1.570253192054318e-49
2.761694697365509e-46
2.763264957555573e-46
)
"I1.M13.m1" (
2.737618337173540e-55
4.914883647903642e-49
1.224084535793600e-43
1.824719461335409e-40
1.825943550786089e-40
)
"I1.Mdumm.m1" (
3.002107603927817e-45
2.865180218974973e-45
2.388592017501937e-54
0.000000000000000e+00
5.867287825291381e-45
)
"I1.M17.m1" (
8.373649234923961e-49
5.404346946875823e-45
5.085934240218052e-50
3.941762751898748e-47
5.444652798660705e-45
)
"I1.M1.m1" (
6.338311890271876e-69
6.958409863000986e-68
3.160758887875595e-57
1.312021005773145e-58
3.291960988528832e-57
)
"I1.M3.m1" (
1.606177423052978e-51
1.719201860230377e-50
2.217890497016706e-44
2.596617178526212e-42
2.618796102294575e-42
)
"I1.MC1.m1" (
0.000000000000000e+00
0.000000000000000e+00
0.000000000000000e+00
0.000000000000000e+00
0.000000000000000e+00
)
"I1.M7.m1" (
1.676212333697370e-38
3.587853773324846e-32
7.815289435183013e-27
7.586746619062936e-24
7.594561944376673e-24
)
"I1.M10.m1" (
2.461323852369376e-36
4.112324235216556e-30
9.019142689588981e-25
7.786620945266615e-22
7.795640129079471e-22
)
"I0.M16.m1" (
2.514458728117749e-36
3.177749375471263e-33
5.620600545739651e-29
1.883798239007572e-23
1.883803859926144e-23
)
"I0.M15.m1" (
1.120366073551628e-37
1.508121381273854e-33
2.425299963392277e-29
8.327986358606667e-24
8.328010613114534e-24
)
"I0.M11.m1" (
2.385540556134606e-33
9.532029014551712e-28
5.912899419772849e-23
1.291251091040148e-18
1.291310220987551e-18
)
"I0.M6.m1" (
7.604083261134479e-28
1.425330464061393e-22
9.099885740800320e-18
1.489128191177028e-13
1.489219191459774e-13
)
"I0.M9.m1" (
7.800750887920134e-28
1.440101608690189e-22
9.196069465001605e-18
1.498920321465539e-13
1.499012283600298e-13
)
"I0.M3.m1" (
6.305970142096780e-37
1.354333716176983e-30
2.852763342325390e-25
3.154426954430227e-22
3.157279731315896e-22
)
"I0.M13.m1" (
6.259017920740059e-44
8.224803762002972e-44
2.576208800209021e-33
4.116286791872406e-36
2.580325087145732e-33
)
"I0.M14.m1" (
3.887960515215652e-38
4.413339139894008e-38
8.219983310919446e-28
5.139409847005152e-31
8.225122721596581e-28
)
"I0.M0.m1" (
3.487062743522272e-63
5.505787878947493e-63
2.235734984798014e-52
6.874237666396131e-55
2.242609222554339e-52
)
"I0.M5.m1" (
4.751067300052359e-36
8.492276691074270e-30
3.244584708315583e-25
1.512232320941662e-20
1.512264767637974e-20
)
"I0.M8.m1" (
8.935992881535036e-33
7.227963282527663e-27
2.649094076731106e-22
1.101925983365421e-17
1.101952475028986e-17
)
"I0.M12.m1" (
3.660850080935419e-33
3.509545700741631e-27
1.275169799553351e-22
5.482663028022507e-18
5.482790548512012e-18
)
"I0.M10.m1" (
1.062162164538499e-28
4.421710046748882e-22
3.289578219428729e-17
6.018961664806250e-13
6.019290627049904e-13
)
"I0.M7.m1" (
1.067812061256401e-28
4.421681934726175e-22
3.289596026169909e-17
6.003283320317320e-13
6.003612284341620e-13
)
"I0.M2.m1" (
6.696998218513220e-45
2.366120755974233e-44
3.784135334647751e-34
1.074463738543239e-34
4.858599073494572e-34
)
"I0.M1.m1" (
2.891620112634612e-45
2.891619919770493e-45
5.733206824358620e-42
9.221060855573394e-52
5.738990065313131e-42
)
"I0.M4.m1" (
2.682111594877407e-36
2.688474803308632e-36
6.730429829336463e-33
9.627771576487193e-31
9.695129580644538e-31
)
"I1.R1.xd2.d2" (
8.327601359778057e-44
9.202712439021528e-32
9.202712439029856e-32
)
"I1.R1.xd2.d1" (
8.323643859775143e-44
1.105992664691627e-33
1.105992664774864e-33
)
"I1.R1.xd3.d2" (
2.411533937534363e-44
8.334088261625995e-47
2.419868025795989e-44
)
"I1.R1.xd1.d2" (
2.092832341974160e-38
5.305176758771841e-39
2.623350017851344e-38
)
"I1.R1.xd3.d1" (
2.411533737372214e-44
1.396456718564031e-47
2.412930194090778e-44
)
"I1.R1.xd1.d1" (
2.092832341974160e-38
4.475185162328266e-40
2.137584193597443e-38
)
"I0.R2.xd2.d2" (
9.198307037031688e-42
9.551490650709255e-33
9.551490659907562e-33
)
"I0.R1.xd2.d2" (
9.198274336655309e-42
9.551490245137918e-33
9.551490254336193e-33
)
"I0.R2.xd2.d1" (
9.198307037031688e-42
1.146008579832479e-34
1.146008671815549e-34
)
"I0.R1.xd2.d1" (
9.198274336655309e-42
1.146008531171362e-34
1.146008623154106e-34
)
"I0.R2.xd3.d2" (
2.204240273763097e-41
3.983232647583564e-33
3.983232669625967e-33
)
"I0.R2.xd1.d2" (
2.204243384049758e-41
3.983232898953014e-33
3.983232920995448e-33
)
"I0.R1.xd3.d2" (
2.204237009281845e-41
3.983232569548238e-33
3.983232591590608e-33
)
"I0.R1.xd1.d2" (
2.204240102223370e-41
3.983232638719577e-33
3.983232660761978e-33
)
"I0.R2.xd3.d1" (
2.204240273763097e-41
4.779168986844138e-35
4.779171191084412e-35
)
"I0.R2.xd1.d1" (
2.204243384049758e-41
4.779169288441399e-35
4.779171492684783e-35
)
"I0.R1.xd3.d1" (
2.204237009281845e-41
4.779168893216129e-35
4.779171097453138e-35
)
"I0.R1.xd1.d1" (
2.204240102223370e-41
4.779168976208983e-35
4.779171180449085e-35
)
"R0" (
2.180748680800571e-31
2.180748680800571e-31
)
"I0.C0.r1" (
8.756637070049406e-42
8.756637070049406e-42
)
"I1.R1.r2" (
1.707933646075025e-25
3.148443414592992e-26
2.022777987534324e-25
)
"I1.R1.r1" (
1.707934695211453e-25
3.148447837159166e-26
2.022779478927370e-25
)
"I0.R2.r2" (
2.841800959707970e-31
2.653398246943816e-43
2.841800959710623e-31
)
"I0.R2.r1" (
2.841817514896927e-31
4.174275974742717e-43
2.841817514901101e-31
)
"I0.R1.r2" (
2.841770683056448e-31
1.590503226412616e-44
2.841770683056607e-31
)
"I0.R1.r1" (
2.841787017520770e-31
6.498166897030510e-44
2.841787017521420e-31
)
"I1.R1.r22" (
2.950951403493073e-30
2.950951403493073e-30
)
"I1.R1.r12" (
2.950956832058742e-30
2.950956832058742e-30
)
"I0.R2.r22" (
4.753712762664531e-34
4.753712762664531e-34
)
"I0.R2.r12" (
4.753764147384441e-34
4.753764147384441e-34
)
"I0.R1.r22" (
4.753662485453541e-34
4.753662485453541e-34
)
"I0.R1.r12" (
4.753712762651044e-34
4.753712762651044e-34
)
"I1.R1.r23" (
8.679268833803196e-29
8.679268833803196e-29
)
"I1.R1.r13" (
8.679284800463882e-29
8.679284800463882e-29
)
"I0.R2.r23" (
1.398150812550170e-32
1.398150812550170e-32
)
"I0.R2.r13" (
1.398165925694830e-32
1.398165925694830e-32
)
"I0.R1.r23" (
1.398136025133109e-32
1.398136025133109e-32
)
"I0.R1.r13" (
1.398150812542727e-32
1.398150812542727e-32
)
"I1.R1.r21" (
1.564438207292983e-29
1.564438207292983e-29
)
"I1.R1.r11" (
1.564441085236546e-29
1.564441085236546e-29
)
"I0.R2.r21" (
1.260083419807527e-33
1.260083419807527e-33
)
"I0.R2.r11" (
1.260097040525839e-33
1.260097040525839e-33
)
"I0.R1.r21" (
1.260070092650964e-33
1.260070092650964e-33
)
"I0.R1.r11" (
1.260083419805570e-33
1.260083419805570e-33
)
"out" 1.225206614910118e-06
"in" 1.225211099280009e-06
"gain" 9.999963399206119e-01
"freq" 2.290867652767773e+00
"I1.MC2.m1" (
0.000000000000000e+00
0.000000000000000e+00
0.000000000000000e+00
0.000000000000000e+00